! TOUCHSTONE file generated by CST MICROWAVE STUDIO
! Date and time: Tue Apr 21 06:58:06 2026
! Project name: sb_rect_varcap_altvar.cst
! Parameters = {CuT=0.035; c_p=7.5e-14; c_s=3.34e-13; h=0.79; l_s=4.5e-10; lw=0.25; p=8.8; phi=0; r_s=5.41; rad=8; rth=0.28; theta=0}
! Header version: 2024
! Port assignment regex: !\s*Touchstone port\s*([0-9]+)\s*=\s*(CST MWS port|CST DES external port|CST DES block port)\s*(.+)\s* \(\"(.*)\"\)(\s*mode\s*([0-9]+))?.*
! Touchstone port assignment:
! Touchstone port 1 = CST MWS port Zmin ("") mode 1
! Touchstone port 2 = CST MWS port Zmin ("") mode 2
! Touchstone port 3 = CST MWS port Zmax ("") mode 1
! Touchstone port 4 = CST MWS port Zmax ("") mode 2
# GHz S MA R 50
10                   0.575773013     -25.1559565    0.00151615047      57.6469885      0.789354371     -142.088821    0.00161539761      59.2469882
                   0.00151590954      57.6442568      0.935431743      24.4039893    0.00203327713      59.0930955       0.34469899      117.925216
                      0.78935439     -142.088826    0.00203364007      59.0947876      0.544485992     -71.8741697     0.0021667064      60.6935498
                   0.00161512112      59.2441731       0.34469899      117.925214     0.0021663013       60.691675       0.93496361      30.2866059
10.01                0.555311077     -25.2060254    0.00152811445      55.6817247      0.802912645     -143.820155    0.00162787681      57.2810477
                   0.00152785545      55.6810183      0.936835655      24.1794905    0.00204885367       57.129635      0.341048429      117.674021
                     0.802911909     -143.820147    0.00204923579      57.1294586      0.521604955     -74.9636056    0.00218296411      58.7274777
                   0.00162755895      57.2809002      0.341048402      117.674021    0.00218251047      58.7280951      0.936378745      30.0221891
10.02                0.534146144     -25.1213972    0.00153934412      53.6605671      0.816197201     -145.612058    0.00163956842      55.2592108
                   0.00153907122      53.6617775      0.938197112      23.9589902    0.00206344297      55.1101932      0.337465294      117.427434
                     0.816195738     -145.612039      0.002063839      55.1082417      0.497761512     -78.2937307    0.00219815772      56.7055141
                   0.00163921447      55.2616238      0.337465244      117.427436    0.00219766217      56.7085361      0.937751065      29.7626847
10.03                0.512377337     -24.8704914    0.00154968413      51.5836896      0.829113907      -147.46423    0.00165030737      53.1816517
                   0.00154940146      51.5867091      0.939517724      23.7423812    0.00207683737      53.0349433      0.333947934      117.185328
                     0.829111743     -147.464201    0.00207724213      53.0313107      0.473022487     -81.8998815    0.00221206668      54.6278334
                    0.0016499226      53.1865187      0.333947862      117.185333    0.00221153585      54.6331712      0.939082194      29.5079551
10.04                0.490142084     -24.4156829    0.00155897128      49.4517839      0.841561399     -149.375856    0.00165992031      51.0490631
                   0.00155868288      49.4565059      0.940799031        23.52956    0.00208881885       50.904577      0.330494743      116.947579
                     0.841558565     -149.375818    0.00208922725      50.8993573      0.447490603     -85.8259523    0.00222445952       52.495128
                      0.00165951      51.0562781       0.33049465      116.947587    0.00222390003       52.502692      0.940373687      29.2578676
10.05                0.467624468     -23.7126313    0.00156703685      47.2661181       0.85343219     -151.345548    0.00166822818      48.8627133
                   0.00156674668      47.2724367      0.942042503      23.3204262    0.00209916221      48.7203621      0.327104158      116.714069
                     0.853428719     -151.345502    0.00209956923      48.7136493      0.421314625     -90.1269261    0.00223509732      50.3086661
                   0.00166779755      48.8721709      0.327104047       116.71408    0.00223451578      50.3183662      0.941627026       29.012294
10.06                0.445064704     -22.7099611    0.00157370965      45.0285876      0.864614199     -153.371297    0.00167504938      46.6244984
                   0.00157342158      45.0363982      0.943249547      23.1148828    0.00210763909      46.4841941      0.323774661      116.484682
                     0.864610124     -153.371244    0.00210803985       46.476082      0.394702556     -94.8720218    0.00224373801      48.0703437
                   0.00167460363       46.636094      0.323774534      116.484696    0.00224314097      48.0820892      0.942843632      28.7711107
10.07                0.422769342     -21.3497166    0.00157881967      42.7417576      0.874992727     -155.450425    0.00168020373      44.3369843
                   0.00157853746      42.7509569      0.944421506       22.912836     0.0021140229      44.1986385      0.320504776      116.259308
                     0.874988083     -155.450367    0.00211441269      44.1892206      0.367938946     -100.148328     0.0022501416      45.7827265
                     0.001679748      44.3506141      0.320504635      116.259325    0.00224953555      45.7964263      0.944024859      28.5341983
10.08                0.401121239     -19.5692936    0.00158220234      40.4088918      0.884452858     -157.579562    0.00168351692      42.0034352
                   0.00158192958      40.4193776      0.945559665      22.7141948     0.0021180945       41.866959      0.317293069      116.037838
                     0.884447685       -157.5795    0.00211846877      41.8563285      0.341407481     -106.064312    0.00225407622      43.4490785
                   0.00168305628      42.0189963      0.317292914      116.037858    0.00225346754      43.4646413      0.945172005      28.3014413
10.09                0.380587175     -17.3058841    0.00158370318      38.0339636      0.892882247      -159.75463    0.00168482557      39.6278251
                   0.00158344333      38.0456352      0.946665255      22.5188713    0.00211964848      39.4931296      0.314138144      115.820169
                     0.892876585     -159.754565    0.00212000288      39.4813789      0.315619536     -112.751497    0.00225532481      41.0733736
                   0.00168436496      39.6452156      0.314137978      115.820192    0.00225471973       41.090708      0.946286311      28.0727284
10.1                 0.361719271     -14.5047233    0.00158318282      35.6216476      0.900174183     -161.970853    0.00168398243      37.2148293
                   0.00158293913      35.6344057      0.947739452      22.3267802    0.00211849973      37.0818252      0.311038645      115.606201
                     0.900168074     -161.970786    0.00211883018      37.0690463      0.291247218      -120.36036    0.00225369212      38.6602869
                   0.00168352667      37.2339482      0.311038468      115.606227    0.00225309669      38.6793014      0.947368964      27.8479519
10.11                0.345144029     -11.1321846    0.00158052194      33.1772878      0.906230825     -164.222791    0.00168086175      34.7697923
                   0.00158029747      33.1910346      0.948783383      22.1378391    0.00211449018      34.6383905      0.307993254      115.395836
                     0.906224313     -164.222723    0.00211479287      34.6246745       0.26915328     -129.042785    0.00224901181      36.2151628
                   0.00168041546      34.7905398      0.307993068      115.395866    0.00224843185      36.2357659      0.948421101      27.6270078
10.12                0.331531099     -7.19333332    0.00157562605      30.7068414      0.910966429      -166.50439    0.00167536421       32.298672
                    0.0015754236      30.7214807      0.949798125       21.951968    0.00210749504      32.1687834      0.305000689      115.188981
                     0.910959559     -166.504323    0.00210776648      32.1542207      0.250397039     -138.909631    0.00224115311       33.743959
                   0.00167493183      32.3209494      0.305000495      115.189014    0.00224059415      33.7660595      0.949443808      27.4097955
10.13                0.321535117      -2.7502876    0.00156842964       28.216799      0.914310383      -168.80907    0.00166742145      29.8079596
                   0.00156825177      28.2322362      0.950784712      21.7690895     0.0020974284      29.6794953      0.302059703      114.985544
                       0.9143032     -168.809005    0.00209766544       29.664175      0.236175714     -149.955346    0.00223002673      31.2531664
                   0.00166700714      29.8316694      0.302059503      114.985581    0.00222949398      31.2766736      0.950438128      27.1962179
10.14                0.315711737      2.06665653    0.00155889951      25.7140812      0.916209853     -171.129822    0.00165699946      27.3045764
                   0.00155874849      25.7302234      0.951744131      21.5891286     0.0020842476      27.1774477      0.299169087      114.785439
                     0.916202405     -171.129759    0.00208444747      27.1614581      0.227652111     -161.966775    0.00221558942      28.7497062
                   0.00165660712      27.3296223      0.299168881      114.785479    0.00221508771      28.7745295      0.951405058      26.9861807
10.15                 0.31442392      7.06513926    0.00154703697       23.205917      0.916631865     -173.459329    0.00164410096      24.7957518
                   0.00154691475       23.222673      0.952677331      21.4120128    0.00206795611      24.6698705      0.296327661      114.588579
                     0.916624199      -173.45927    0.00206811643      24.6532987      0.225666467     -174.482029    0.00219784709      26.2408077
                   0.00164373415       24.822039      0.296327452      114.588623    0.00219738083      26.2668571      0.952345554      26.7795932
10.16                0.317769243      12.0187424    0.00153287867      20.6997072      0.915564649     -175.790109    0.00162876625      22.2888874
                   0.00153278691      20.7169876      0.953585219      21.2376716    0.00204860468      22.1641656      0.293534282      114.394884
                     0.915556811     -175.790056    0.00204872347      22.1470974      0.230450453      173.120735    0.00217685584      23.7338722
                   0.00162842821      22.3163223       0.29353407      114.394931      0.002176429      23.7610585      0.953260531      26.5763674
10.17                0.325559039      16.7091413    0.00151649609      18.2028803      0.913018156     -178.114653     0.0016110726      19.7914122
                   0.00151643612      18.2205976      0.954468666      21.0660368    0.00202629051      19.6677626      0.290787837      114.204273
                     0.913010193     -178.114605    0.00202636623      19.6502825       0.24153803      161.422925    0.00215272116      21.2363285
                   0.00161076618      19.8199026      0.290787622      114.204324    0.00215233722       21.264563      0.954150866      26.3764181
10.18                0.337359048      20.9647921    0.00149799356      15.7227468      0.909023707      179.574429    0.00159113213      17.3106375
                    0.0014979664      15.7408153      0.955328504      20.8970422    0.00200115462      17.1879734      0.288087243      114.016669
                     0.909015664      179.574469    0.00200118615      17.1701645      0.257944554      150.795155    0.00212559501      18.7554877
                   0.00159085981      17.3400926      0.288087028      114.016725    0.00212525694      18.7846826      0.955017401       26.179663
10.19                0.352572633      24.6810654    0.00147750504      13.2663596      0.903632786      177.284264    0.00156908836      14.8536165
                   0.00147751138      13.2846954      0.956165535      20.7306238    0.00197337747       14.731852       0.28543145      113.831999
                     0.903624706      177.284296    0.00197336409      14.7137959      0.278473841       141.36312    0.00209567112      16.2984029
                   0.00156885222       14.883947      0.285431234      113.832059     0.0020953814      16.3284712      0.955860943      25.9860224
10.2                 0.370533469      27.8190046    0.00145518976      10.8403864      0.896915087      175.021594    0.00154511155      12.4270175
                   0.00145522999      10.8589075      0.956980524      20.5667195    0.00194317315      12.3060673      0.282819434      113.650191
                      0.89690701      175.021616    0.00194311454      12.2878442      0.301969336       133.07813    0.00206317879      13.8717423
                   0.00154491328      12.4581358      0.282819219      113.650254    0.00206293937      13.9025978      0.956682264      25.7954191
10.21                0.390581288      30.3903609    0.00143122713      8.45099955      0.888955938      172.792662    0.00151939328      10.0370136
                   0.00143130135      8.46962598       0.95777421      20.4052691     0.0019107825      9.91679335      0.280250202      113.471173
                     0.888947904      172.792674    0.00191067874      9.89848175      0.327440426      125.807237    0.00202837558      11.4816786
                   0.00151923419      10.0688333      0.280249989      113.471241    0.00202818791      11.5132365      0.957482108      25.6077783
10.22                0.412110413       32.438809    0.00140581122      6.10378832      0.879853308      170.603127    0.00149214055      7.68919459
                   0.00140591925      6.12244208      0.958547298       20.246214    0.00187646576      7.56962073      0.277722787       113.29488
                     0.879845352      170.603128    0.00187631723      7.55129751      0.354092394      119.396185    0.00199153938      9.13380151
                   0.00149202155      7.72163109      0.277722576      113.294952    0.00199140443      9.16597769      0.958261187      25.4230277
10.23                0.434593458      34.0238006    0.00137914504      3.80369414      0.869714569      168.457997     0.0014635697      5.38850243
                   0.00137928647      3.82229919      0.959300466      20.0894977    0.00184049487      5.26949243       0.27523625      113.121246
                     0.869706724      168.457985    0.00184030231      5.25123278      0.381309188      113.701011    0.00195296031       6.8330528
                   0.00146349137      5.42147261      0.275236041      113.121321    0.00195287861      6.86576452      0.959020185      25.2410973
10.24                 0.45758772      35.2092973    0.00135143509      1.55497088      0.858653224      166.361591    0.00143390064      3.13919152
                   0.00135160929      1.57345317      0.960034366      19.9350652    0.00180314624      3.02066385      0.272789676      112.950207
                     0.858645521      166.361566    0.00180291066      3.00254121      0.408621835      108.599337    0.00191293299       4.5836867
                   0.00143386323      3.17261391      0.272789471      112.950286    0.00191290464      4.61685239      0.959759759      25.0619191
10.25                0.480731614      36.0570544    0.00132288634    -0.638831578      0.846785763      164.317523    0.00140335149     0.944812298
                   0.00132309247    -0.620544071      0.960749624      19.7828633    0.00176469401     0.826686517      0.270382177      112.781701
                     0.846778228      164.317483    0.00176441665     0.808772547      0.435677431      103.991607    0.00187174937      2.38925346
                   0.00140335492     0.978607045      0.270381976      112.781785    0.00187177407      2.42279283      0.960480539      24.8854274
10.26                0.503736419      36.6232257    0.00129369782     -2.77486231      0.834228787      162.328703    0.00137213391     -1.19178379
                   0.00129393489      -2.7568396      0.961446842      19.6328402    0.00172540418     -1.30958701      0.268012889       112.61567
                     0.834221443      162.328648    0.00172508649     -1.32722248      0.462213398       99.798394    0.00182969255     0.252604358
                   0.00137217785     -1.15769488      0.268012693      112.615758    0.00182976967     0.286438436      0.961183133      24.7115584
10.27                0.526376465      36.9570648      0.001264059     -4.85094611      0.821096503      160.397368    0.00134044927     -3.26842102
                   0.00126432588     -4.83325618      0.962126597      19.4849457    0.00168552982     -3.38597982      0.265680971      112.452056
                     0.821089372      160.397296    0.00168517343     -3.40326882      0.488037401      95.9567141    0.00178703164     -1.82408506
                   0.00134053314     -3.23411449       0.26568078      112.452148    0.00178716023     -1.79003385      0.961868123      24.5402503
10.28                0.548479406      37.1008111    0.00123414697     -6.86554552      0.807498649      158.525111    0.00130848569     -5.28356144
                   0.00123444243     -6.84825432      0.962789445      19.3391311     0.0016453073     -5.40095275      0.263385605      112.290802
                     0.807491748      158.525023    0.00164491395     -5.41782919      0.513011961      92.4165278    0.00174401784       -3.839277
                   0.00130860871     -5.24911215      0.263385421      112.290898    0.00174419671     -3.80508482       0.96253607      24.3714432
10.29                0.569917298      37.0901704    0.00120412445     -8.81771196      0.793538861      156.712939    0.00127641588     -7.23625598
                   0.00120444718     -8.80088339      0.963435921      19.1953491    0.00160495364     -7.35355543      0.261125997      112.131855
                     0.793532206      156.712832     0.0016045252     -7.36995516      0.537042649      89.1378192    0.00170088159     -5.79202255
                   0.00127657709     -7.20173709      0.261125819      112.131955    0.00170110932     -5.75776406      0.963187512       24.205079
10.3                  0.59059875       36.955044    0.00117413851     -10.7070294      0.779313489      154.961321    0.00124439586     -9.12608813
                   0.00117448711     -10.6907253       0.96406654      19.0535539    0.00156466484     -9.24337007      0.258901372      111.975161
                     0.779307091      154.961196    0.00156420321     -9.25923087      0.560068922      86.0882858    0.00165783088     -7.68190539
                   0.00124459414     -9.09157111      0.258901201      111.975265    0.00165810587     -7.64765373      0.963822969      24.0411013
10.31                0.610462156      36.7203164    0.00114431995     -12.5335541      0.764910815      153.270255     0.0012125643     -10.9531137
                   0.00114469302     -12.5178344      0.964681797      18.9137007    0.00152461509     -11.0704511      0.256710977      111.820669
                     0.764904684      153.270109    0.00152412225     -11.0857127      0.582056892      83.2415619    0.00161505039     -9.50898144
                   0.00121279841     -10.9186683      0.256710813      111.820777    0.00161537089      -9.4748082      0.964442939      23.8794555
10.32                0.629469942      36.4066092    0.00111478329     -14.2977529      0.750410634      151.639324    0.00118104249     -12.7177991
                   0.00111517938     -14.2826753      0.965282167      18.7757464    0.00148495675     -12.8352635      0.254554079       111.66833
                     0.750404777      151.639158    0.00148443468     -12.8498677      0.602993569      80.5758702     0.0015727015     -11.2737173
                   0.00118131111     -12.6834933      0.254553922      111.668442    0.00157306567     -11.2396924      0.965047902      23.7200885
10.33                0.647603721       36.030959    0.00108562717     -16.0004427      0.735884138      150.067763    0.00114993481     -14.4209607
                   0.00108604482      -15.986063      0.965868109      18.6396489     0.0014458209     -14.5386224      0.252429964      111.518095
                      0.73587856      150.067576    0.00144527158     -14.5525129      0.622882204      78.0730037    0.00153092294     -12.9769295
                   0.00115023655     -14.3868609      0.252429815      111.518211    0.00153132883     -12.9431214      0.965638322      23.5629489
10.34                0.664860227      35.6074065    0.00105693506     -17.6427324      0.721394044       148.55451    0.00111932952     -16.0637071
                   0.00105737285     -17.6291043      0.966440066      18.5053672    0.00140731837     -16.1816347      0.250337938      111.369918
                     0.721388749      148.554301    0.00140674376     -16.1947572       0.64173852      75.7175582    0.00148983181     -14.6197266
                   0.00111966293     -16.0298778      0.250337797      111.370038    0.00149027745      -14.586202      0.966214644      23.4079865
10.35                0.681247938      35.1474991    0.00102877631     -19.2259689      0.706994914      147.098267    0.00108929983     -17.6473847
                   0.00102923281     -19.2131442      0.966998463      18.3728617    0.00136954105     -17.7656454      0.248277324      111.223752
                     0.706989905      147.098035    0.00136894308     -17.7779477       0.65958764       73.496351    0.00144952512     -16.2034554
                   0.00108966342     -17.6138889      0.248277193      111.223876    0.00145000847     -16.1702793      0.966777296      23.2551529
10.36                0.696784286      34.6607142    0.00100120724     -20.7516879      0.692733609      145.697544     0.0010599051     -19.1735289
                   0.00100168105     -20.7397162      0.967543709      18.2420936    0.00133256346     -19.2921885      0.246247465      111.079554
                     0.692728885      145.697288    0.00133194403     -19.3036204      0.676461586      71.3979798    0.00141008134     -17.7296513
                   0.00106029739     -19.1404276      0.246247342      111.079682    0.00141060037     -17.6968869      0.967326692       23.104401
10.37                0.711493358      34.1548131   0.000974272388     -22.2215696      0.678649832      144.350705    0.00103119219     -20.6438195
                  0.000974762159     -22.2104988        0.9680762      18.1130256    0.00129644438     -20.7629421      0.244247719       110.93728
                     0.678645392      144.350425    0.00129580532     -20.7734554      0.692397258      69.4124853    0.00137156224     -19.1999942
                   0.00103161168     -20.6111721      0.244247605      110.937412    0.00137211493     -19.1677031      0.967863231      22.9556849
10.38                 0.72540403      33.6361351   0.000948005781     -23.6373999      0.664776728      143.056008    0.00100319678     -22.0600421
                  0.000948510193     -23.6272758      0.968596316       17.985621    0.00126122855     -22.1796904      0.242277461      110.796889
                     0.664772571      143.055703    0.00126057163     -22.1892389      0.707434801      67.5310912    0.00133401465     -20.6162699
                   0.00100364198     -22.0279063      0.242277357      110.797025    0.00133459899     -20.5845119      0.968387295      22.8089603
10.39                0.738548458      33.1098428   0.000922432137     -25.0010368      0.651141508      141.811637   0.000975944679     -23.4240542
                  0.000922949917     -24.9919031      0.969104425      17.8598445    0.00122694831     -23.5442892      0.240336083       110.65834
                     0.651137631      141.811307    0.00122627523     -23.5528288      0.721616302      65.7460031    0.00129747226     -21.9803359
                  0.000976414119      -23.392486      0.240335989      110.658479    0.00129808627     -21.9491691      0.968899256      22.6641838
10.4                 0.750960864      32.5801248   0.000897568066     -26.3143811      0.637766066      140.615733   0.000949453082     -24.7377563
                  0.000898097989     -26.3062797       0.96960088      17.7356614    0.00119362517     -24.8586375      0.238422994      110.521593
                     0.637762464      140.615377    0.00119293759     -24.8661261      0.734984758      64.0502501    0.00126195725      -23.294093
                  0.000949945318       -24.70681      0.238422909      110.521737    0.00126259901     -23.2635735       0.96939947      22.5213134
10.41                0.762676585      32.0503633   0.000873423178     -27.5793525      0.624667585      139.466416   0.000923731776     -26.0030678
                   0.00087396407     -27.5723233      0.970086024      17.6130381    0.00116127135     -26.1246531      0.236537614      110.386611
                     0.624664253      139.466034    0.00116057083     -26.1310506      0.747583277      62.4375603    0.00122748197     -24.5594605
                  0.000924245395     -25.9727959       0.23653754      110.386758    0.00122814958     -24.5296429      0.969888282      22.3803084
10.42                0.773731317      31.5232744   0.000850001106     -28.7978691      0.611859106      138.361808   0.000898784213     -27.2219067
                  0.000850551844     -28.7919502      0.970560184      17.4919421     0.0011298911     -27.3442522      0.234679383      110.253355
                      0.61185604      138.361399    0.00112917912     -27.3495204      0.759454451      60.9022604    0.00119405029     -25.7783564
                  0.000899317838     -27.1923599      0.234679318      110.253506    0.00119474192     -25.7492933      0.970366023       22.241129
10.43                0.784160545       31.001023   0.000827300438     -29.9718312      0.599350068      137.300045   0.000874608502     -28.3961728
                  0.000827859949     -29.9670588       0.97102368      17.3723415    0.00109948195     -28.5193333      0.232847751      110.121789
                     0.599347262      137.299609    0.00109875995     -28.5234361      0.770639901       59.439196    0.00116165901      -26.952681
                  0.000875160795     -28.3674004      0.232847697      110.121944    0.00116237289     -26.9244232      0.970833014      22.1037367
10.44                0.793999102      30.4853187   0.000805315549     -31.1031081      0.587146792      136.279297   0.000851198301     -29.5277352
                  0.000805882813     -31.0995164      0.971476817      17.2542054    0.00107003587     -29.6517635      0.231042184      109.991879
                      0.58714424      136.278832     0.0010693052     -29.6546669       0.78117993      58.0436648    0.00113029901     -28.0843031
                  0.000851767967     -29.4997845       0.23104214      109.992037    0.00113103342     -28.0568996      0.971289564      21.9680938
10.45                 0.80328085      29.9774954   0.000784037349     -32.1935272      0.575252933      135.297771   0.000828543603      -30.618421
                  0.000784611396     -32.1911486      0.971919892      17.1375036    0.00104154019     -30.7433685      0.229262162      109.863588
                     0.575250627      135.297278    0.00104080213     -30.7450403      0.791113287      56.7113629    0.00109995632     -29.1750501
                  0.000829129391     -30.5913379      0.229262129       109.86375    0.00110070961     -29.1485481      0.971735972       21.834164
10.46                0.812038447      29.4785771   0.000763453928     -33.2448666      0.563669876      134.353724   0.000806631428     -31.6700082
                  0.000764033837     -33.2437318       0.97235319      17.0222069    0.00101397854     -31.7959245      0.227507177      109.736885
                     0.563667811      134.353202    0.00101323431     -31.7963345      0.800477007      55.4383392    0.00107061302     -30.2266999
                  0.000807232134     -31.6438368      0.227507155       109.73705    0.00107138361     -30.2011448      0.972172525      21.7019116
10.47                0.820303195      28.9893327    0.00074355113     -34.2588488      0.552397097      133.445469   0.000785446431      -32.684219
                   0.00074413603     -34.2589867      0.972776988      16.9082867   0.000987331572     -32.8111521      0.225776735      109.611736
                     0.552395266      133.444917   0.000986582306     -32.8102721      0.809306315      54.2209573    0.00104224808     -31.2409749
                  0.000786060895     -32.6590017      0.225776722      109.611905    0.00104303444     -31.2164102      0.972599503      21.5713021
10.48                0.828104937      28.5103215   0.000724313043     -35.2371367      0.541432479      132.571375   0.000764971419      -33.662716
                  0.000724902111     -35.2385743      0.973191553      16.7957151   0.000961577617     -33.7907122      0.224070351       109.48811
                     0.541430874      132.570794     0.0009608244     -33.7885159      0.817634584      53.0558628    0.00101483804     -32.2195377
                  0.000765598529     -33.6384937       0.22407035      109.488283     0.0010156387     -32.1960052      0.973017173      21.4423019